{"table-1524-733": {"title": ["Chemical name", "Chemical formula", "Common name", "Source and description"], "numCols": 4, "numericColumns": [], "pgTitle": "List of commonly available chemicals", "numDataRows": 24, "secondTitle": "A", "numHeaderRows": 1, "caption": "A", "data": [["[Acetic_acid|Acetic acid]", "CH 3 COOH + H 2 O", "5% Solution: White vinegar", "Grocery store; \"white vinegar\"\u20145% Photography supply store; \"Indicator Stop Bath\"\u201489% (with Bromocresol Purple dye) or \"Glacial Acetic Acid\" 99.5\u2013100%"], ["[Acetone|Acetone]", "CH 3 COCH 3", "[Acetone|Acetone]", "General; \"nail polish remover\" Discount store; Onyx, Cutex. Boating supply; \"fiberglass cleaner\" Hardware store; \"Acetone\" While composition varies from product to product, paint removers have more acetone per volume than regular nail polish remover, and industrial grade (rather than consumer grade) paint removers used by professionals + sold in bulk will contain more acetone still. Some stores sell pure acetone as well."], ["[Acetylene|Acetylene]", "C 2 H 2", "Ethyne", "Hardware store or Welding supply; \"acetylene\" By reaction of calcium carbide and water."], ["[Aspirin|Acetylsalicylic acid]", "C 9 H 8 O 4", "[Aspirin|Aspirin]", "Pharmacy; \"Aspirin\""], ["[Aluminium|Aluminium]", "Al", "[Aluminium|Aluminium]", "General; \"aluminium foil\" Fine art store; \"metallic pigment\"\u2014powdered aluminium Fiberglass supply shop; powdered aluminium as a filler material. Refined from mined aluminum ore, or bauxite. Often coated with wax to reduce flammability."], ["[Aluminium_hydroxide|Aluminium hydroxide]", "Al(OH) 3", "alumina hydrate", "[Magnesium_hydroxide|magnesium hydroxide]"], ["[Aluminium_oxide|Aluminium oxide]", "Al 2 O 3", "[Aluminium_oxide|alumina]", "Welding/Industrial supply; \"sandblasting sand\"\u2014graded sizes of crystals Telescope supply; grinding agent for optical components"], ["[Ammonium_aluminium_sulfate|Aluminium ammonium sulfate]", "AlNH 4 (SO 4 ) 2", "[Ammonium_aluminium_sulfate|ammonium alum]", "General; \"styptic pencils\" for shaving Fine art supply; mordant for dying and painting Organic/health/Bulk Foods; by name Photography supply store; darkroom chemical"], ["[Potassium_alum|Aluminium potassium sulfate]", "KAl(SO 4 ) 2 12H 2 O", "[Alum|Alum]", "General; astringent to shrink mucus membranes General; \"styptic pencil\" General; mordant for clothing dyes (RIT brand and others) Natural health store; \"deodorant stone\""], ["[Aluminium_sulfate|Aluminium sulfate]", "Al 2 (SO 4 ) 3", "Flocculating Powder", "Pool supply; by name General; antiperspirant (not deodorant) brand name \"Sparkling Clear\""], ["[Ammonia|Ammonia]", "NH 3 (aq); NH 4 OH", "[Ammonia|Ammonia]", "Grocery store; \"household ammonia\"\u2014ammonium hydroxide\u201410% solution. Make sure it is marked \"clear\". If it foams when you shake it, it contains soap. Drug store; \"strong ammonia\", 27% solution Welding supply; \"ammonia\"\u2014anhydrous ammonia in cylinders"], ["[Ammonium_bicarbonate|Ammonium bicarbonate]", "(NH 4 )HCO 3", "[Ammonium_bicarbonate|Salt of Hartshorn]", "Scandinavian baking ingredient Must be kept sealed for stability."], ["[Ammonium_bifluoride|Ammonium bifluoride]", "NH 4 HF 2", "Ammonium hydrogen fluoride", "Hardware store; \"toilet bowl cleaner\", \"rust stain remover\" Automotive supply; \"car body cleaner\" General; glass etching (Armour Etch brand)"], ["[Ammonium_bromide|Ammonium bromide]", "NH 4 Br", "\u2014", "Photography store/Darkroom; \"bleach bath\" for photograph development"], ["[Ammonium_carbonate|Ammonium carbonate]", "(NH 4 ) 2 CO 3", "[Smelling_salts|Smelling Salts]", "Grocery/Drug store; \"smelling salts\" (first-aid section) Scandinavian Baking Ingredient Must be kept sealed for stability."], ["[Ammonium_chloride|Ammonium chloride]", "NH 4 Cl", "[Flux_(metallurgy)|Soldering Flux]", "Hardware store (plumbing); \"Salt of Ammon\", \"Sal Ammoniac\" (soldering flux/soldering iron cleaner) Photography supply; darkroom chemical"], ["[Ammonium_nitrate|Ammonium nitrate]", "NH 4 NO 3", "[Ammonium_nitrate|Ammonium Nitrate]", "Garden supply; \"Nitrate of Ammonia\" (fertilizer) Grocery/Pharmacy; single-use cold packs"], ["[Ammonium_persulfate|Ammonium persulfate]", "(NH 4 ) 2 S 2 O 8", "Etching Solution", "Electronics supply; \"circuit board etching solution\""], ["[Ammonium_phosphate|Ammonium phosphate]", "(NH 4 ) 3 PO 4", "[Fertilizer|Fertilizer]", "Garden/Agricultural supply; by name"], ["[Ammonium_sulfate|Ammonium sulfate]", "(NH 4 ) 2 SO 4", "\u2014", "Garden/Agricultural supply; fertilizer or pH adjuster for soil"], ["[Amylose|Amylose]", "(C 6 H 9 O 5 ) n", "[Corn_starch|Corn_starch]", "Grocery store; \"corn starch\""], ["[Anthocyanin|Anthocyanin]", "\u2014", "\u2014", "Extraction from Red Cabbage: Cut, boil, then filter"], ["[Argon|Argon]", "Ar", "\u2014", "Welding supply; by name General; inert filler gas inside incandescent light bulbs"], ["[Ascorbic_acid|Ascorbic acid]", "C 6 H 8 O 6", "[Vitamin_C|Vitamin C]", "General; \"Vitamin C tablets\""]]}, "table-0809-4": {"title": ["Brand Name", "Polymer", "Characteristic properties", "Uses"], "numCols": 4, "numericColumns": [], "pgTitle": "List of synthetic polymers", "numDataRows": 15, "secondTitle": "Brand names", "numHeaderRows": 1, "caption": "Brand names", "data": [["[Bakelite|Bakelite]", "[Phenol_formaldehyde_resin|Phenol-formaldehyde resin]", "High electric, heat and chemical resistance", "[AC_power_plugs_and_sockets|sockets]"], ["[Kevlar|Kevlar]", "[Aramid|Para-aramid]", "[Ultimate_tensile_strength|tensile strength]", "[Armour|armour]"], ["[Twaron|Twaron]", "[Aramid|Para-aramid]", "Heat resistant and strong fibre", "[Bulletproofing|Bulletproofing]"], ["[BoPET|BoPET]", "[Polyethylene_terephthalate|Polyethylene terephthalate]", "High strength and stiffness, less permeable to gases, almost reflects light completely", "[Transparency_and_translucency|transparent]"], ["[Neoprene|Neoprene]", "[Neoprene|Neoprene]", "[Inert|Chemically inert]", "[Gasket|gaskets]"], ["[Nylon|Nylon]", "[Polyamide|Polyamide]", "[Thermoplastic|thermoplastic]", "[Stocking|Stocking]"], ["[Nomex|Nomex]", "[Aramid|aramid]", "[Fireproofing|fireproof]", "[Firefighter|firefighter's]"], ["[Acrylic_fiber|Acrylic_fiber]", "[Polyacrylonitrile|Polyacrylonitrile]", "Wool-like, resistant to chemicals, oils, moths and sunlight", "[Sweater|sweater]"], ["Rilsan", "[Nylon_11|Polyamide 11]", "[Bioplastic|Bioplastic]", "[Catheter|catheters]"], ["[Technora|Technora]", "[Aramid|Copolyamid]", "[Corrosion|corrosion]", "[Optical_fiber_cable|optical fiber cable]"], ["[Polytetrafluoroethylene|Polytetrafluoroethylene]", "[Polytetrafluoroethylene|Polytetrafluoroethylene]", "[Friction|coefficient of friction]", "[Plain_bearing|Plain bearings]"], ["[Polyetherimide|Polyetherimide]", "[Polyimide|Polyimide]", "Heat,flame and solvent resistant. Has high dielectric strength", "[Plectrum|guitar picks]"], ["[Vectran|Vectran]", "[Polyester|aromatic polyester]", "[Creep_(deformation)|creep]", "[Cable|cables]"], ["[Viton|Viton]", "[Polytetrafluoroethylene|Polytetrafluoroethylene]", "[Elastomer|Elastomer]", "Depends on the grade of the polymer. Viton B is used in chemical process plants and gaskets."], ["[Zylon|Zylon]", "[Zylon|poly-p-phenylene-2,6-benzobisoxazole]", "Very high tensile strength and thermal stability", "[Racket_(sports_equipment)|tennis racquets]"]]}, "table-1169-102": {"title": ["Industry", "Sales ($ billion)", "Attrac-tiveness", "Products"], "numCols": 4, "numericColumns": [], "pgTitle": "Fine chemical", "numDataRows": 9, "secondTitle": "Other specialty chemical industries", "numHeaderRows": 1, "caption": "Table: 8: Other Specialty Chemicals Industries", "data": [["Animal Health", "~ 20", "\u2666\u2666\u2666", "Typical a.h. products derive from human medicines, e.g. Reconzile, dubbed \u201cpuppy Prozac\u201d. Paraciticides are the largest product category. Good growth prospects in fish farming."], ["Adhesives & Sealants", "~ 60", "\u2666\u2666", "Uses extend from household, e.g. paper gluing, to high-tech specialty products for assembling electronic parts, automotive and aircraft construction."], ["Biocides", "~ 3", "\u2666", "Largest applications are wood conversation and water treatment. A.I.\u2019s mainly commodities"], ["Catalysts & Enzymes", "~ 15", "\u2666", "Catalysts (automotive, polymers, petroleum processing, chemicals) / enzymes (detergents / technical enzymes, food & feed) = 80 / 20"], ["Dyestuffs & Pigments", "~ 10", "\u2666", "Mostly based on large volume aromatic compounds, e.g., letter acids .Asian dyestuff prod, > 10 6 mtpa. Some niche products, e.g. colour shifting pigments"], ["Electronic Chemicals", "~ 30", "\u2666\u2666\u2666", "Sizeable and growing demand for fine chemicals, e.g. octafluorocyclobutane for etching. for liquid crystals and organic light emitting diodes (OLED)."], ["Flavours & Fragrances", "~ 20", "\u2666\u2666", "~3\u2019000 molecules are used, e.g. (-) menthol [20\u2019000 tons],polycyclic musks [10\u2019000 tons], vanilline, linalool, geraniol, heterocyclics, 2-phenylethanol)"], ["Food & Feed Additives", "40-50", "\u2666\u2666", "Mainly amino acids (L-lysine [10 6 tons], L-methionine, \u2026), vitamins (C [> 10 5 tons], niacin, riboflavin, \u2026), artificial sweeteners (aspartame, splenda) and carotenoids"], ["Specialty Polymers", "NA", "\u2666\u2666", "Aerospace: Fluorinated poly ethylene/propylene,[30\u2019000 tons], Polyether ether ketones [PEEK], Polyimides, Precision parts: Aramides [25\u2019000 t], polybenzazoles"]]}, "table-0806-58": {"title": ["Name", "Formula", "Color"], "numCols": 3, "numericColumns": [], "pgTitle": "Color of chemicals", "numDataRows": 5, "secondTitle": "Gases", "numHeaderRows": 1, "caption": "Gases", "data": [["Hydrogen", "H 2", "colorless"], ["Chlorine", "Cl 2", "greenish yellow"], ["Iodine", "I 2", "purple"], ["Nitrogen Dioxide", "NO 2", "brown"], ["Dinitrogen tetroxide", "N 2 O 4", "colorless"]]}, "table-0881-101": {"title": ["Sector", "Demand share (%)"], "numCols": 2, "numericColumns": [1], "pgTitle": "Ethylene oxide", "numDataRows": 8, "secondTitle": "Applications", "numHeaderRows": 1, "caption": "Applications", "data": [["Agrochemicals", "7"], ["Oilfeild chemicals", "10"], ["Detergents", "25"], ["Textile", "35"], ["Personal care", "10"], ["Pharmaceuticals", "8"], ["Others", "5"], ["Total [2009]", "5.2 mt"]]}, "table-0116-621": {"title": ["Chemicals/Materials", "Chemicals/Materials"], "numCols": 2, "numericColumns": [], "pgTitle": "Occupational asthma", "numDataRows": 21, "secondTitle": "Occupations at risk", "numHeaderRows": 1, "caption": "Occupations at risk", "data": [["Occupation", "Agent"], ["Aircraft fitters", "Triethyltetramine"], ["Aluminum cable solderers", "[Aminoethylethanolamine|Aminoethylethanolamine]"], ["Aluminum pot room workers", "[Fluorine|Fluorine]"], ["Autobody workers", "[Acrylate|Acrylate]"], ["Brewery workers", "[Chloramine-T|Chloramine-T]"], ["Chemical plant workers, pulp mill workers", "[Chlorine|Chlorine]"], ["Dye weighers", "Levafix brilliant yellow"], ["Electronics workers", "[Rosin|Rosin]"], ["Epoxy resin manufacturers", "Tetrachlorophthalic anhydride"], ["Foundry mold makers", "[Furan|Furan]"], ["Fur dyers", "[P-Phenylenediamine|P-Phenylenediamine]"], ["Hairdressers", "Persulphate salt"], ["Health care workers", "[Glutaraldehyde|Glutaraldehyde]"], ["[Phenol_formaldehyde_resin|phenolic resin]", "[Formaldehyde|Formaldehyde]"], ["Meat wrappers", "[Polyvinyl_chloride|Polyvinyl chloride]"], ["Paint manufacturers, plastic molders, tool setters", "[Phthalic_anhydride|Phthalic anhydride]"], ["Paint sprayers", "[Dimethylethanolamine|Dimethylethanolamine]"], ["[Shellac|shellac]", "[Ethylenediamine|Ethylenediamine]"], ["Refrigeration industry workers", "[Chlorofluorocarbon|Chlorofluorocarbon]"], ["Solderer", "Polyether alcohol"]]}, "table-0435-533": {"title": ["Plastic Identification Code", "Type of plastic polymer", "Properties", "Common Packaging Applications", "[Glass_transition|Glass Transition]", "Young's Modulus (GPa)"], "numCols": 6, "numericColumns": [], "pgTitle": "Plastic recycling", "numDataRows": 7, "secondTitle": "Plastic identification code", "numHeaderRows": 1, "caption": "Plastic identification code", "data": [["", "[Polyethylene_terephthalate|Polyethylene terephthalate]", "Clarity, strength, toughness, barrier to gas and moisture.", "Soft drink, water and salad dressing bottles; peanut butter and jam jars", "Tm = 250; Tg = 76", "2-2.7"], ["", "[High-density_polyethylene|High-density polyethylene]", "Stiffness, strength, toughness, resistance to moisture, permeability to gas.", "[Hula_hoop|hula hoop]", "Tm = 130; Tg = -125", "0.8"], ["", "[Polyvinyl_chloride|Polyvinyl chloride]", "Versatility, ease of blending, strength, toughness.", "Blister packaging for non-food items; cling films for non-food use. Not used for food packaging as the plasticisers needed to make natively rigid PVC flexible are usually toxic. Non-packaging uses are electrical cable insulation; rigid piping; vinyl records.", "Tm = 240; Tg = 85", "2.4-4.1"], ["", "[Low-density_polyethylene|Low-density polyethylene]", "Ease of processing, strength, toughness, flexibility, ease of sealing, barrier to moisture.", "Frozen food bags; squeezable bottles, e.g. honey, mustard; cling films; flexible container lids.", "Tm = 120; Tg = -125", "0.17-0.28"], ["", "[Polypropylene|Polypropylene]", "Strength, toughness, resistance to heat, chemicals, grease and oil, versatile, barrier to moisture.", "Reusable microwaveable ware; kitchenware; yogurt containers; margarine tubs; microwaveable disposable take-away containers; disposable cups; plates.", "Tm = 173; Tg = -10", "1.5-2"], ["", "[Polystyrene|Polystyrene]", "Versatility, clarity, easily formed", "Egg cartons; packing peanuts; disposable cups, plates, trays and cutlery; disposable take-away containers;", "Tm = 240 (only isotactic); Tg = 100 (atactic and isotactic)", "3-3.5"], ["", "[Polycarbonate|polycarbonate]", "Dependent on polymers or combination of polymers", "Beverage bottles; baby milk bottles. Non-packaging uses for polycarbonate: compact discs; \"unbreakable\" glazing; electronic apparatus housings; lenses including sunglasses, prescription glasses, automotive headlamps, riot shields, instrument panels;", "Polycarbonate: Tg = 145; Tm = 225", "Polycarbonate: 2.6; ABS plastics: 2.3"]]}, "table-0806-57": {"title": ["Name", "Formula", "Color"], "numCols": 3, "numericColumns": [], "pgTitle": "Color of chemicals", "numDataRows": 7, "secondTitle": "Metals", "numHeaderRows": 1, "caption": "Metals", "data": [["Potassium", "K", "Lilac/Purple"], ["Sodium", "Na", "Yellow"], ["Lithium", "Li", "Red"], ["Caesium", "Cs", "Blue"], ["Calcium", "Ca", "Red/Orange"], ["Strontium", "Sr", "Red"], ["Barium", "Ba", "Green/Yellow"]]}, "table-0191-235": {"title": ["Adsorption Strength (Least Strongly Adsorbed -> Most Strongly Adsorbed)", "Adsorption Strength (Least Strongly Adsorbed -> Most Strongly Adsorbed)", "Adsorption Strength (Least Strongly Adsorbed -> Most Strongly Adsorbed)", "Adsorption Strength (Least Strongly Adsorbed -> Most Strongly Adsorbed)", "Adsorption Strength (Least Strongly Adsorbed -> Most Strongly Adsorbed)", "Adsorption Strength (Least Strongly Adsorbed -> Most Strongly Adsorbed)", "Adsorption Strength (Least Strongly Adsorbed -> Most Strongly Adsorbed)", "Adsorption Strength (Least Strongly Adsorbed -> Most Strongly Adsorbed)", "Adsorption Strength (Least Strongly Adsorbed -> Most Strongly Adsorbed)"], "numCols": 9, "numericColumns": [], "pgTitle": "Elution", "numDataRows": 1, "secondTitle": "Eluotropic Series", "numHeaderRows": 1, "caption": "Eluotropic Series", "data": [["Saturated hydrocarbons; alkyl halides", "Unsaturated hydrocarbons; Alkenyl Halides", "Aromatic Hydrocarbons; Aryl Halides", "Polyhalogenated Hydrocarbons", "Ethers", "Esters", "Aldehydes and Ketones", "Alcohols", "Acids and Bases (Amines)"]]}, "table-0217-467": {"title": ["Property", "Test method", "units", "neat PAI", "30% GF PAI", "30% CF PAI"], "numCols": 6, "numericColumns": [], "pgTitle": "Polyamide-imide", "numDataRows": 14, "secondTitle": "High-strength grades", "numHeaderRows": 1, "caption": "High-strength grades", "data": [["Tensile Strength", "ASTM D 638", "MPa (kpsi)", "152 (22.0)", "221 (32.1)", "221 (32.0)"], ["Tensile Modulus", "ASTM D 638", "GPa (kpsi)", "4.5 (650)", "14.5 (2,110)", "16.5 (2,400)"], ["Tensile Elongation", "ASTM D 638", "%", "7.6", "2.3", "1.5"], ["Flexural Strength", "ASTM D 790", "MPa (kpsi)", "241 (34.9)", "333 (48.3)", "350 (50.7)"], ["Flexural Modulus", "ASTM D 638", "GPa (kpsi)", "5.0 (730)", "11.7 (1,700)", "16.5 (2,400)"], ["Compressive Strength", "ASTM D 695", "MPa (kpsi)", "221 (32.1)", "264 (38.3)", "254 (36.9)"], ["Shear Strength", "ASTM D 732", "MPa (kpsi)", "128 (18.5)", "139 (20.1)", "119 (17.3)"], ["Izod Impact Strength", "ASTM D 256", "J/m (ftlb/in)", "144 (2.7)", "80 (1.5)", "48 (0.9)"], ["Izod Impact Strength-Unnotched", "ASTM D 4812", "J/m (ftlb/in)", "1070 (20)", "530 (10)", "320 (6)"], ["Heat Deflection Temperature @ 264 psi", "ASTM D 648", "\u00b0C (\u00b0F)", "278 (532)", "282 (540)", "282 (540)"], ["Coefficient Linear Thermal Expansion", "ASTM D 696", "ppm/\u00b0C (ppm/\u00b0F)", "31 (17)", "16 (9)", "9 (5)"], ["Volume Resistivity", "ASTM D 257", "ohm-cm", "2e17", "2e17", ""], ["Specific Gravity", "ASTM D 792", "", "1.42", "1.61", "1.48"], ["Water Absorption, 24 hr", "ASTM D 570", "%", "0.33", "0.24", "0.26"]]}, "table-1420-265": {"title": ["Material", "[Young's_modulus|Young's modulus]", "[Ultimate_tensile_strength|Tensile strength]", "Elongation at break (%)"], "numCols": 4, "numericColumns": [], "pgTitle": "Carbon nanotube", "numDataRows": 7, "secondTitle": "Strength", "numHeaderRows": 1, "caption": "Comparison of mechanical properties", "data": [["SWNT E", "~1 (from 1 to 5)", "13\u201353", "16"], ["Armchair SWNT T", "0.94", "126.2", "23.1"], ["Zigzag SWNT T", "0.94", "94.5", "15.6\u201317.5"], ["Chiral SWNT", "0.92", "", ""], ["MWNT E", "0.2 \u20130.8 \u20130.95", "11 \u201363 \u2013150", ""], ["[Stainless_steel|Stainless steel]", "0.186 \u20130.214", "0.38 \u20131.55", "15\u201350"], ["[Kevlar|Kevlar]", "0.06\u20130.18", "3.6\u20133.8", "~2"]]}, "table-1390-133": {"title": ["Original calculation", "Replacement calculation"], "numCols": 2, "numericColumns": [], "pgTitle": "Strength reduction", "numDataRows": 4, "secondTitle": "Other strength reduction operations", "numHeaderRows": 1, "caption": "Other strength reduction operations", "data": [["y = x / 8", "y = x >> 3"], ["y = x * 64", "y = x << 6"], ["y = x * 2", "y = x << 1"], ["y = x * 15", "y = (x << 4) - x"]]}, "table-0806-54": {"title": ["Wavelength (nm)", "Color", "Color", "Complementary Color", "Complementary Color"], "numCols": 5, "numericColumns": [], "pgTitle": "Color of chemicals", "numDataRows": 6, "secondTitle": "Colors by wavelength", "numHeaderRows": 1, "caption": "Colors by wavelength", "data": [["400-424", "", "Violet", "", "Green-yellow"], ["424-491", "", "Blue", "", "Yellow"], ["491-570", "", "Green", "", "Violet"], ["570-585", "", "Yellow", "", "Blue"], ["585-647", "", "Orange", "", "Cyan-Blue"], ["647-700", "", "Red", "", "Cyan"]]}, "table-0285-770": {"title": ["Year", "1400", "1514", "1523", "1526", "1564", "1567\u201368", "1574", "1603", "1609", "1660\u201361", "1665", "1669", "1670", "1680"], "numCols": 15, "numericColumns": [2, 3, 4, 5, 6, 7, 8, 9, 10, 11, 12, 13, 14], "pgTitle": "Janissary", "numDataRows": 1, "secondTitle": "Corps strength", "numHeaderRows": 1, "caption": "Corps strength", "data": [["Strength", "<1,000", "10,156", "12,000", "7,885", "13,502", "12,798", "13,599", "14,000", "37,627", "54,222", "49,556", "51,437", "49,868", "54,222"]]}, "table-1631-302": {"title": ["Reinforcing Material", "Most Common Matrix Materials", "Properties Improved"], "numCols": 3, "numericColumns": [], "pgTitle": "Fibre-reinforced plastic", "numDataRows": 4, "secondTitle": "Examples of polymers best suited for the process", "numHeaderRows": 1, "caption": "Examples of polymers best suited for the process", "data": [["Glass Fibres", "UP, EP, PA, PC, POM, PP, PBT, VE", "Strength, Elasticity, heat resistance"], ["Wood Fibres", "PE, PP, ABS, HDPE, PLA", "Flexural strength, Tensile modulus, Tensile Strength"], ["Carbon and Aramid Fibres", "EP, UP, VE, PA", "Elasticity, Tensile Strength, compression strength, electrical strength."], ["Inorganic Particulates", "Semicrystalline Thermoplastics, UP", "Isotropic shrinkage, abrasion, compression strength"]]}, "table-0919-677": {"title": ["Frequency band", "Minimum field strength in dB\u00b5V/m", "Notes"], "numCols": 3, "numericColumns": [1], "pgTitle": "Field strength meter", "numDataRows": 7, "secondTitle": "Minimum field strength criteria", "numHeaderRows": 1, "caption": "Minimum field strength criteria", "data": [["Band I", "48", ""], ["Band III", "55", ""], ["Band IV", "65", ""], ["Band V", "70", ""], ["Band II", "48", "Rural area"], ["Band II", "60", "Urban area"], ["Band II", "70", "Large towns"]]}, "table-1253-980": {"title": ["Generic name", "Brand names"], "numCols": 2, "numericColumns": [], "pgTitle": "List of psychiatric medications by condition treated", "numDataRows": 1, "secondTitle": "Medium Strength", "numHeaderRows": 1, "caption": "Medium Strength", "data": [["[Zuclopenthixol|Zuclopenthixol]", "Cisordinol, Clopixol"]]}, "table-0136-378": {"title": ["Property", "Value"], "numCols": 2, "numericColumns": [], "pgTitle": "Neobalanocarpus", "numDataRows": 6, "secondTitle": "Mechanical Properties", "numHeaderRows": 1, "caption": "Mechanical Properties", "data": [["Strength group:", "greater than 55.2 N/mm 2 , extremely strong"], ["Static bending MOE (Modulus of Elasticity):", "19,600 N/mm 2"], ["Static bending MOR (Modulus of Rupture):", "149 N/mm 2"], ["Compression Strength Perpendicular to grain:", "12.00 N/mm 2"], ["Compression Strength Parallel to grain:", "75.20 N/mm 2"], ["Shear strength:", "13.90 N/mm 2"]]}, "table-0752-77": {"title": ["Year", "2000", "2001", "2002", "2003", "2004", "2005", "2006", "2007", "2008", "2009", "2010", "2011", "2012"], "numCols": 14, "numericColumns": [1, 2, 3, 4, 5, 6, 7, 8, 9, 10, 11, 12, 13], "pgTitle": "Demographics of Singapore", "numDataRows": 3, "secondTitle": "Household income disparity", "numHeaderRows": 1, "caption": "Ratio of household income from work per household member at the 90th percentile to 10th percentile among resident employed households", "data": [["Household income from work excluding employer CPF contributions per household member", "7.74", "8.68", "8.49", "8.51", "8.81", "9.26", "9.3", "9.52", "9.61", "9.25", "9.43", "9.12", "9.18"], ["Household income from work including employer CPF contributions per household member", "7.75", "8.58", "8.82", "8.81", "8.87", "9.06", "9.23", "9.38", "9.64", "9.43", "9.35", "9.19", "9.14"], ["Household income from work including employer CPF contributions per household member after accounting for government transfers and taxes", "7.68", "7.82", "7.71", "8.28", "8.24", "8.3", "7.68", "8.68", "7.94", "8.00", "8.1", "7.54", "7.87"]]}, "table-0752-76": {"title": ["Year", "2000", "2001", "2002", "2003", "2004", "2005", "2006", "2007", "2008", "2009", "2010", "2011", "2012"], "numCols": 14, "numericColumns": [1, 2, 3, 4, 5, 6, 7, 8, 9, 10, 11, 12, 13], "pgTitle": "Demographics of Singapore", "numDataRows": 3, "secondTitle": "Household income disparity", "numHeaderRows": 1, "caption": "Gini coefficient among resident employed households", "data": [["Household income from work excluding employer CPF contributions per household member", "0.444", "0.456", "0.457", "0.460", "0.464", "0.470", "0.476", "0.489", "0.481", "0.478", "0.480", "0.482", "0.488"], ["Household income from work including employer CPF contributions per household member", "0.442", "0.454", "0.454", "0.457", "0.460", "0.465", "0.470", "0.482", "0.474", "0.471", "0.472", "0.473", "0.478"], ["Household income from work including employer CPF contributions per household member after accounting for government transfers and taxes", "0.434", "0.437", "0.433", "0.446", "0.446", "0.449", "0.444", "0.467", "0.449", "0.448", "0.452", "0.448", "0.459"]]}}